# vtk DataFile Version 2.0
geometry, Created by Gmsh 4.11.1 
ASCII
DATASET UNSTRUCTURED_GRID
POINTS 98 double
0 -20 0
0 20 0
40 20 0
40 -20 0
5 20 0
10 20 0
15 20 0
20 20 0
25 20 0
30 20 0
35 20 0
40 15 0
40 10 0
40 5 0
40 0 0
40 -5 0
40 -10 0
40 -15 0
35 -20 0
30 -20 0
25 -20 0
20 -20 0
15 -20 0
10 -20 0
5 -20 0
0 -15 0
0 -10 0
0 -5 0
0 0 0
0 5 0
0 10 0
0 15 0
17.14049204609446 15.50302475901537 0
35.66987298107781 -2.5 0
17.14049204609446 -15.50302475901538 0
4.330127018922193 -2.5 0
27.97449336159678 15.49492590562872 0
27.9336282735329 -15.51851937522286 0
4.179727443457509 7.487565360607894 0
35.69346645067195 7.459134911936117 0
7.476374304941594 -15.16921852945249 0
7.476374304941587 15.16921852945249 0
35.76613977472084 -12.47881315359562 0
35.68591744668498 -7.496468858932603 0
31.34242003975681 -4.999411476488769 0
31.34019164175581 9.808725186936465e-05 0
27.01013890276699 -2.499885564872821 0
27.00961894323342 2.499999999999994 0
22.67957858423349 1.907252118934129e-05 0
22.6795063676316 5.000003178753524 0
18.34938175592947 2.500003708545778 0
18.34938215713282 -2.499996203155511 0
14.01924357018088 1.250898370441789e-06 0
14.01923983676087 -4.999999570770173 0
14.01924164217592 5.000000826574016 0
18.42842635318048 -7.363066394310392 0
26.92641716012115 -7.354851085496386 0
26.92588722781876 7.354968775061701 0
9.689110867544647 2.499999999999987 0
22.63094784972739 9.80550949974106 0
14.37156907052577 -10.66798436059668 0
9.689110867544649 -7.500000000000011 0
9.907061792565438 7.464777825430706 0
14.3914106823321 10.68251474444297 0
22.67890584695769 -4.952963362552321 0
22.64411299296405 -9.77482764783171 0
12.38193774206764 15.58618778744808 0
22.58240883642051 14.87309603256264 0
32.74423651409177 15.6815802232335 0
22.5784517014452 -14.87208340651761 0
12.37957564542403 -15.58445797984733 0
4.330127018922191 2.5 0
18.34936490538903 7.499999999999986 0
35.67387950594353 2.493205499864664 0
31.33046495526318 4.967901212352389 0
30.99817093078716 10.69187571020655 0
4.179727443457509 -7.487565360607894 0
9.689110867544651 -2.500000000000011 0
30.91664948197978 -10.75561531714222 0
3.717025946938815 -12.3258511527445 0
35.91941202076772 12.45046184992999 0
32.54377455050824 -15.83811130057841 0
3.717025946938811 12.3258511527445 0
10.22851688345923 11.77225519020505 0
10.18048595676508 -11.7760475868295 0
19.0189248639927 11.67282900715241 0
19.03261043284199 -11.63619731365436 0
26.22238164127012 11.64407518464013 0
26.19985192200862 -11.65517936644216 0
36.33974596215562 16.33974596215561 0
3.660254037844386 -16.33974596215561 0
3.660254037844386 16.33974596215561 0
36.33974596215562 -16.33974596215561 0
7.009618943233415 -5.000000000000002 0
7.009618943233427 4.999999999999986 0
7.009618943233416 -7.074724113721299e-16 0
6.985799895389386 -9.958577064250999 0
6.985799895389372 9.958577064251005 0

CELLS 198 752
1 0
1 1
1 2
1 3
2 1 4
2 4 5
2 5 6
2 6 7
2 7 8
2 8 9
2 9 10
2 10 2
2 2 11
2 11 12
2 12 13
2 13 14
2 14 15
2 15 16
2 16 17
2 17 3
2 3 18
2 18 19
2 19 20
2 20 21
2 21 22
2 22 23
2 23 24
2 24 0
2 0 25
2 25 26
2 26 27
2 27 28
2 28 29
2 29 30
2 30 31
2 31 1
3 0 90 24
3 25 90 0
3 4 91 1
3 1 91 31
3 2 89 10
3 11 89 2
3 3 92 17
3 18 92 3
3 5 41 4
3 41 91 4
3 6 66 5
3 5 66 41
3 7 32 6
3 32 66 6
3 8 67 7
3 7 67 32
3 9 36 8
3 36 67 8
3 10 68 9
3 9 68 36
3 10 89 68
3 12 80 11
3 80 89 11
3 13 39 12
3 39 80 12
3 14 73 13
3 13 73 39
3 15 33 14
3 33 73 14
3 16 43 15
3 15 43 33
3 17 42 16
3 42 43 16
3 17 92 42
3 19 81 18
3 81 92 18
3 20 37 19
3 37 81 19
3 21 69 20
3 20 69 37
3 22 34 21
3 34 69 21
3 23 70 22
3 22 70 34
3 24 40 23
3 40 70 23
3 24 90 40
3 26 79 25
3 79 90 25
3 27 76 26
3 76 79 26
3 28 35 27
3 35 76 27
3 29 71 28
3 28 71 35
3 30 38 29
3 38 71 29
3 31 82 30
3 30 82 38
3 31 91 82
3 63 66 32
3 32 85 63
3 67 85 32
3 43 44 33
3 44 45 33
3 45 73 33
3 34 70 60
3 60 86 34
3 34 86 69
3 71 95 35
3 35 93 76
3 35 95 93
3 36 87 67
3 68 75 36
3 75 87 36
3 69 88 37
3 78 81 37
3 37 88 78
3 38 94 71
3 82 97 38
3 38 97 94
3 73 74 39
3 74 75 39
3 75 80 39
3 40 84 70
3 40 90 79
3 79 96 40
3 40 96 84
3 66 83 41
3 82 91 41
3 41 97 82
3 83 97 41
3 42 78 43
3 42 81 78
3 42 92 81
3 43 78 44
3 44 46 45
3 44 56 46
3 44 78 56
3 46 47 45
3 47 74 45
3 45 74 73
3 46 48 47
3 46 64 48
3 56 64 46
3 48 49 47
3 49 57 47
3 57 74 47
3 48 50 49
3 48 51 50
3 48 64 51
3 50 72 49
3 49 59 57
3 49 72 59
3 51 52 50
3 52 54 50
3 54 72 50
3 51 53 52
3 51 55 53
3 51 64 55
3 53 77 52
3 52 58 54
3 52 77 58
3 55 60 53
3 60 61 53
3 61 77 53
3 58 62 54
3 62 63 54
3 63 72 54
3 55 86 60
3 64 65 55
3 65 86 55
3 56 65 64
3 56 88 65
3 78 88 56
3 59 87 57
3 57 75 74
3 57 87 75
3 58 94 62
3 77 95 58
3 58 95 94
3 59 85 67
3 67 87 59
3 72 85 59
3 60 84 61
3 70 84 60
3 61 93 77
3 84 96 61
3 61 96 93
3 62 83 63
3 62 97 83
3 94 97 62
3 63 83 66
3 63 85 72
3 69 86 65
3 65 88 69
3 68 80 75
3 68 89 80
3 94 95 71
3 76 96 79
3 93 96 76
3 93 95 77

CELL_TYPES 198
1
1
1
1
3
3
3
3
3
3
3
3
3
3
3
3
3
3
3
3
3
3
3
3
3
3
3
3
3
3
3
3
3
3
3
3
5
5
5
5
5
5
5
5
5
5
5
5
5
5
5
5
5
5
5
5
5
5
5
5
5
5
5
5
5
5
5
5
5
5
5
5
5
5
5
5
5
5
5
5
5
5
5
5
5
5
5
5
5
5
5
5
5
5
5
5
5
5
5
5
5
5
5
5
5
5
5
5
5
5
5
5
5
5
5
5
5
5
5
5
5
5
5
5
5
5
5
5
5
5
5
5
5
5
5
5
5
5
5
5
5
5
5
5
5
5
5
5
5
5
5
5
5
5
5
5
5
5
5
5
5
5
5
5
5
5
5
5
5
5
5
5
5
5
5
5
5
5
5
5
5
5
5
5
5
5
5
5
5
5
5
5
5
5
5
5
5
5

CELL_DATA 198
SCALARS CellEntityIds int 1
LOOKUP_TABLE default
10
10
10
10
9
9
9
9
9
9
9
9
9
9
9
9
9
9
9
9
9
9
9
9
9
9
9
9
9
9
9
9
9
9
9
9
8
8
8
8
8
8
8
8
8
8
8
8
8
8
8
8
8
8
8
8
8
8
8
8
8
8
8
8
8
8
8
8
8
8
8
8
8
8
8
8
8
8
8
8
8
8
8
8
8
8
8
8
8
8
8
8
8
8
8
8
8
8
8
8
8
8
8
8
8
8
8
8
8
8
8
8
8
8
8
8
8
8
8
8
8
8
8
8
8
8
8
8
8
8
8
8
8
8
8
8
8
8
8
8
8
8
8
8
8
8
8
8
8
8
8
8
8
8
8
8
8
8
8
8
8
8
8
8
8
8
8
8
8
8
8
8
8
8
8
8
8
8
8
8
8
8
8
8
8
8
8
8
8
8
8
8
8
8
8
8
8
8
